------------------------------------------------------------
          Invoking FHI-aims ...

          When using FHI-aims, please cite the following reference:

            Volker Blum, Ralf Gehrke, Felix Hanke, Paula Havu,
            Ville Havu, Xinguo Ren, Karsten Reuter, and Matthias Scheffler,
            'Ab Initio Molecular Simulations with Numeric Atom-Centered Orbitals',
            Computer Physics Communications 180, 2175-2196 (2009)

          In addition, many other developments in FHI-aims are likely important for
          your particular application. If so, please cite them. A partial list of references
          is written at the end of this file. Thank you for giving credit to the authors
          of these developments.

          For general information about FHI-aims please find us at

            https://fhi-aims.org

          Online tutorials can be found at

            https://fhi-aims-club.gitlab.io/tutorials/tutorials-overview/

          For any questions about FHI-aims, please visit our slack channel at

            https://fhi-aims.slack.com

          and our main development and support site at

            https://aims-git.rz-berlin.mpg.de .

          The latter site, in particular, has a wiki to collect information, as well
          as an issue tracker to log discussions, suggest improvements, and report issues
          or bugs. https://aims-git.rz-berlin.mpg.de is also the main development site
          of the project and all new and updated code versions can be obtained there.
          Please send an email to aims-coordinators@fhi-berlin.mpg.de and we will add
          you to these sites. They are for you and everyone is welcome there.

------------------------------------------------------------



  Date     :  20241230, Time     :  222900.072
  Time zero on CPU 1             :   0.890062000000000E+00  s.
  Internal wall clock time zero  :           504829740.072  s.

  FHI-aims created a unique identifier for this run for later identification
  aims_uuid : 4C316E5A-1E07-4E75-AE5C-B4BFB9D5ED53

  Build configuration of the current instance of FHI-aims
  -------------------------------------------------------
  FHI-aims version      : 230905
  Commit number         : GITDIR-NOTFOUND
  CMake host system     : Linux-5.14.21-150400.24.81-default
  CMake version         : 3.20.4
  Fortran compiler      : /mpcdf/soft/SLE_15/packages/x86_64/intel_oneapi/2022.3/mpi/2021.7.1/bin/mpiifort (Intel) version 2021.7.0.20221019
  Fortran compiler flags: -O3 -ip -fp-model precise
  C compiler            : /mpcdf/soft/SLE_15/packages/x86_64/intel/2021.7.1/bin/icc (Intel) version 2021.7.0.20221019
  C compiler flags      : -O3 -ip -fp-model precise -std=gnu99
  C++ compiler          : /mpcdf/soft/SLE_15/packages/x86_64/intel/2021.7.1/bin/icx (IntelLLVM) version 2022.2.1
  C++ compiler flags    :
  CUDA compiler         : /mpcdf/soft/SLE_15/packages/x86_64/cuda/12.1.1/bin/nvcc
  CUDA compiler flags   : -O3 -DAdd_ -lcublas
  HIP compiler          :
  HIP compiler flags    :
  HIP GPU arch          :
  ELPA2 kernel          : AVX512
  Using MPI
  Using ScaLAPACK
  Using LibXC
  Using CUDA
  Using i-PI
  Using RLSY
  Linking against: /mpcdf/soft/SLE_15/packages/x86_64/cuda/12.1.1/lib64/libcublas.so
                   /mpcdf/soft/SLE_15/packages/x86_64/cuda/12.1.1/lib64/libcudart.so
                   /mpcdf/soft/SLE_15/packages/x86_64/intel_oneapi/2023.1/mkl/latest/lib/intel64/libmkl_intel_lp64.so
                   /mpcdf/soft/SLE_15/packages/x86_64/intel_oneapi/2023.1/mkl/latest/lib/intel64/libmkl_sequential.so
                   /mpcdf/soft/SLE_15/packages/x86_64/intel_oneapi/2023.1/mkl/latest/lib/intel64/libmkl_core.so
                   /mpcdf/soft/SLE_15/packages/x86_64/intel_oneapi/2023.1/mkl/latest/lib/intel64/libmkl_blacs_intelmpi_lp64.so
                   /mpcdf/soft/SLE_15/packages/x86_64/intel_oneapi/2023.1/mkl/latest/lib/intel64/libmkl_scalapack_lp64.so

  Using      288 parallel tasks.
  Task        0 on host adag022 reporting.
  Task        1 on host adag022 reporting.
  Task        2 on host adag022 reporting.
  Task        3 on host adag022 reporting.
  Task        4 on host adag022 reporting.
  Task        5 on host adag022 reporting.
  Task        6 on host adag022 reporting.
  Task        7 on host adag022 reporting.
  Task        8 on host adag022 reporting.
  Task        9 on host adag022 reporting.
  Task       10 on host adag022 reporting.
  Task       11 on host adag022 reporting.
  Task       12 on host adag022 reporting.
  Task       13 on host adag022 reporting.
  Task       14 on host adag022 reporting.
  Task       15 on host adag022 reporting.
  Task       16 on host adag022 reporting.
  Task       17 on host adag022 reporting.
  Task       18 on host adag022 reporting.
  Task       19 on host adag022 reporting.
  Task       20 on host adag022 reporting.
  Task       21 on host adag022 reporting.
  Task       22 on host adag022 reporting.
  Task       23 on host adag022 reporting.
  Task       24 on host adag022 reporting.
  Task       25 on host adag022 reporting.
  Task       26 on host adag022 reporting.
  Task       27 on host adag022 reporting.
  Task       28 on host adag022 reporting.
  Task       29 on host adag022 reporting.
  Task       30 on host adag022 reporting.
  Task       31 on host adag022 reporting.
  Task       32 on host adag022 reporting.
  Task       33 on host adag022 reporting.
  Task       34 on host adag022 reporting.
  Task       35 on host adag022 reporting.
  Task       36 on host adag022 reporting.
  Task       37 on host adag022 reporting.
  Task       38 on host adag022 reporting.
  Task       39 on host adag022 reporting.
  Task       40 on host adag022 reporting.
  Task       41 on host adag022 reporting.
  Task       42 on host adag022 reporting.
  Task       43 on host adag022 reporting.
  Task       44 on host adag022 reporting.
  Task       45 on host adag022 reporting.
  Task       46 on host adag022 reporting.
  Task       47 on host adag022 reporting.
  Task       48 on host adag022 reporting.
  Task       49 on host adag022 reporting.
  Task       50 on host adag022 reporting.
  Task       51 on host adag022 reporting.
  Task       52 on host adag022 reporting.
  Task       53 on host adag022 reporting.
  Task       54 on host adag022 reporting.
  Task       55 on host adag022 reporting.
  Task       56 on host adag022 reporting.
  Task       57 on host adag022 reporting.
  Task       58 on host adag022 reporting.
  Task       59 on host adag022 reporting.
  Task       60 on host adag022 reporting.
  Task       61 on host adag022 reporting.
  Task       62 on host adag022 reporting.
  Task       63 on host adag022 reporting.
  Task       64 on host adag022 reporting.
  Task       65 on host adag022 reporting.
  Task       66 on host adag022 reporting.
  Task       67 on host adag022 reporting.
  Task       68 on host adag022 reporting.
  Task       69 on host adag022 reporting.
  Task       70 on host adag022 reporting.
  Task       71 on host adag022 reporting.
  Task       72 on host adag023 reporting.
  Task       73 on host adag023 reporting.
  Task       74 on host adag023 reporting.
  Task       75 on host adag023 reporting.
  Task       76 on host adag023 reporting.
  Task       77 on host adag023 reporting.
  Task       78 on host adag023 reporting.
  Task       79 on host adag023 reporting.
  Task       80 on host adag023 reporting.
  Task       81 on host adag023 reporting.
  Task       82 on host adag023 reporting.
  Task       83 on host adag023 reporting.
  Task       84 on host adag023 reporting.
  Task       85 on host adag023 reporting.
  Task       86 on host adag023 reporting.
  Task       87 on host adag023 reporting.
  Task       88 on host adag023 reporting.
  Task       89 on host adag023 reporting.
  Task       90 on host adag023 reporting.
  Task       91 on host adag023 reporting.
  Task       92 on host adag023 reporting.
  Task       93 on host adag023 reporting.
  Task       94 on host adag023 reporting.
  Task       95 on host adag023 reporting.
  Task       96 on host adag023 reporting.
  Task       97 on host adag023 reporting.
  Task       98 on host adag023 reporting.
  Task       99 on host adag023 reporting.
  Task      100 on host adag023 reporting.
  Task      101 on host adag023 reporting.
  Task      102 on host adag023 reporting.
  Task      103 on host adag023 reporting.
  Task      104 on host adag023 reporting.
  Task      105 on host adag023 reporting.
  Task      106 on host adag023 reporting.
  Task      107 on host adag023 reporting.
  Task      108 on host adag023 reporting.
  Task      109 on host adag023 reporting.
  Task      110 on host adag023 reporting.
  Task      111 on host adag023 reporting.
  Task      112 on host adag023 reporting.
  Task      113 on host adag023 reporting.
  Task      114 on host adag023 reporting.
  Task      115 on host adag023 reporting.
  Task      116 on host adag023 reporting.
  Task      117 on host adag023 reporting.
  Task      118 on host adag023 reporting.
  Task      119 on host adag023 reporting.
  Task      120 on host adag023 reporting.
  Task      121 on host adag023 reporting.
  Task      122 on host adag023 reporting.
  Task      123 on host adag023 reporting.
  Task      124 on host adag023 reporting.
  Task      125 on host adag023 reporting.
  Task      126 on host adag023 reporting.
  Task      127 on host adag023 reporting.
  Task      128 on host adag023 reporting.
  Task      129 on host adag023 reporting.
  Task      130 on host adag023 reporting.
  Task      131 on host adag023 reporting.
  Task      132 on host adag023 reporting.
  Task      133 on host adag023 reporting.
  Task      134 on host adag023 reporting.
  Task      135 on host adag023 reporting.
  Task      136 on host adag023 reporting.
  Task      137 on host adag023 reporting.
  Task      138 on host adag023 reporting.
  Task      139 on host adag023 reporting.
  Task      140 on host adag023 reporting.
  Task      141 on host adag023 reporting.
  Task      142 on host adag023 reporting.
  Task      143 on host adag023 reporting.
  Task      144 on host adag024 reporting.
  Task      145 on host adag024 reporting.
  Task      146 on host adag024 reporting.
  Task      147 on host adag024 reporting.
  Task      148 on host adag024 reporting.
  Task      149 on host adag024 reporting.
  Task      150 on host adag024 reporting.
  Task      151 on host adag024 reporting.
  Task      152 on host adag024 reporting.
  Task      153 on host adag024 reporting.
  Task      154 on host adag024 reporting.
  Task      155 on host adag024 reporting.
  Task      156 on host adag024 reporting.
  Task      157 on host adag024 reporting.
  Task      158 on host adag024 reporting.
  Task      159 on host adag024 reporting.
  Task      160 on host adag024 reporting.
  Task      161 on host adag024 reporting.
  Task      162 on host adag024 reporting.
  Task      163 on host adag024 reporting.
  Task      164 on host adag024 reporting.
  Task      165 on host adag024 reporting.
  Task      166 on host adag024 reporting.
  Task      167 on host adag024 reporting.
  Task      168 on host adag024 reporting.
  Task      169 on host adag024 reporting.
  Task      170 on host adag024 reporting.
  Task      171 on host adag024 reporting.
  Task      172 on host adag024 reporting.
  Task      173 on host adag024 reporting.
  Task      174 on host adag024 reporting.
  Task      175 on host adag024 reporting.
  Task      176 on host adag024 reporting.
  Task      177 on host adag024 reporting.
  Task      178 on host adag024 reporting.
  Task      179 on host adag024 reporting.
  Task      180 on host adag024 reporting.
  Task      181 on host adag024 reporting.
  Task      182 on host adag024 reporting.
  Task      183 on host adag024 reporting.
  Task      184 on host adag024 reporting.
  Task      185 on host adag024 reporting.
  Task      186 on host adag024 reporting.
  Task      187 on host adag024 reporting.
  Task      188 on host adag024 reporting.
  Task      189 on host adag024 reporting.
  Task      190 on host adag024 reporting.
  Task      191 on host adag024 reporting.
  Task      192 on host adag024 reporting.
  Task      193 on host adag024 reporting.
  Task      194 on host adag024 reporting.
  Task      195 on host adag024 reporting.
  Task      196 on host adag024 reporting.
  Task      197 on host adag024 reporting.
  Task      198 on host adag024 reporting.
  Task      199 on host adag024 reporting.
  Task      200 on host adag024 reporting.
  Task      201 on host adag024 reporting.
  Task      202 on host adag024 reporting.
  Task      203 on host adag024 reporting.
  Task      204 on host adag024 reporting.
  Task      205 on host adag024 reporting.
  Task      206 on host adag024 reporting.
  Task      207 on host adag024 reporting.
  Task      208 on host adag024 reporting.
  Task      209 on host adag024 reporting.
  Task      210 on host adag024 reporting.
  Task      211 on host adag024 reporting.
  Task      212 on host adag024 reporting.
  Task      213 on host adag024 reporting.
  Task      214 on host adag024 reporting.
  Task      215 on host adag024 reporting.
  Task      216 on host adag025 reporting.
  Task      217 on host adag025 reporting.
  Task      218 on host adag025 reporting.
  Task      219 on host adag025 reporting.
  Task      220 on host adag025 reporting.
  Task      221 on host adag025 reporting.
  Task      222 on host adag025 reporting.
  Task      223 on host adag025 reporting.
  Task      224 on host adag025 reporting.
  Task      225 on host adag025 reporting.
  Task      226 on host adag025 reporting.
  Task      227 on host adag025 reporting.
  Task      228 on host adag025 reporting.
  Task      229 on host adag025 reporting.
  Task      230 on host adag025 reporting.
  Task      231 on host adag025 reporting.
  Task      232 on host adag025 reporting.
  Task      233 on host adag025 reporting.
  Task      234 on host adag025 reporting.
  Task      235 on host adag025 reporting.
  Task      236 on host adag025 reporting.
  Task      237 on host adag025 reporting.
  Task      238 on host adag025 reporting.
  Task      239 on host adag025 reporting.
  Task      240 on host adag025 reporting.
  Task      241 on host adag025 reporting.
  Task      242 on host adag025 reporting.
  Task      243 on host adag025 reporting.
  Task      244 on host adag025 reporting.
  Task      245 on host adag025 reporting.
  Task      246 on host adag025 reporting.
  Task      247 on host adag025 reporting.
  Task      248 on host adag025 reporting.
  Task      249 on host adag025 reporting.
  Task      250 on host adag025 reporting.
  Task      251 on host adag025 reporting.
  Task      252 on host adag025 reporting.
  Task      253 on host adag025 reporting.
  Task      254 on host adag025 reporting.
  Task      255 on host adag025 reporting.
  Task      256 on host adag025 reporting.
  Task      257 on host adag025 reporting.
  Task      258 on host adag025 reporting.
  Task      259 on host adag025 reporting.
  Task      260 on host adag025 reporting.
  Task      261 on host adag025 reporting.
  Task      262 on host adag025 reporting.
  Task      263 on host adag025 reporting.
  Task      264 on host adag025 reporting.
  Task      265 on host adag025 reporting.
  Task      266 on host adag025 reporting.
  Task      267 on host adag025 reporting.
  Task      268 on host adag025 reporting.
  Task      269 on host adag025 reporting.
  Task      270 on host adag025 reporting.
  Task      271 on host adag025 reporting.
  Task      272 on host adag025 reporting.
  Task      273 on host adag025 reporting.
  Task      274 on host adag025 reporting.
  Task      275 on host adag025 reporting.
  Task      276 on host adag025 reporting.
  Task      277 on host adag025 reporting.
  Task      278 on host adag025 reporting.
  Task      279 on host adag025 reporting.
  Task      280 on host adag025 reporting.
  Task      281 on host adag025 reporting.
  Task      282 on host adag025 reporting.
  Task      283 on host adag025 reporting.
  Task      284 on host adag025 reporting.
  Task      285 on host adag025 reporting.
  Task      286 on host adag025 reporting.
  Task      287 on host adag025 reporting.

  Memory overcommitment is allowed on your operating system.

  Obtaining array dimensions for all initial allocations:
  
  -----------------------------------------------------------------------
  Parsing control.in (first pass over file, find array dimensions only).
  The contents of control.in will be repeated verbatim below
  unless switched off by setting 'verbatim_writeout .false.' .
  in the first line of control.in .
  -----------------------------------------------------------------------
  
  #########################################################################################
  #
  #  Volker Blum, 2017 : Test run input file control.in for simple H2O
  #
  #########################################################################################
  #
  #  Physical model
  #
    xc                 pbe
    spin               none
    relativistic       atomic_zora  scalar
    charge             0.
    k_grid             2 2 1
  #  relax_geometry  trm  1e-3
    vdw_ts vdw_params_kind="tssurf"
  #  many_body_dispersion_nl
    use_dipole_correction  .true.
    sc_accuracy_rho   1e-4
    sc_accuracy_eev   1e-3
    sc_accuracy_etot  1e-5
    relax_geometry trm 1e-2
  #  use_pimd_wrapper  adag019  13236
  #  use_pimd_wrapper  adag019  14195
  # basis_threshold 1d-5
  # override_illconditioning .true.
  ################################################################################
  #
  #  FHI-aims code project
  #  Volker Blum, 2018
  #
  #  Suggested "intermediate" defaults for Ag atom (to be pasted into control.in file)
  #
  ################################################################################
    species        Ag
  #     global species definitions
      nucleus             47
      mass                107.8682
  #
      l_hartree           4
  #
      cut_pot             5.0  2.0  1.0
      basis_dep_cutoff    1e-4
  #
      radial_base         62 7.0
      radial_multiplier   2
      angular_grids specified
        division   0.3947   50
        division   0.7739  110
        division   1.1156  194
        division   1.3117  302
  #      division   1.5936  434
  #      division   2.0830  590
  #      division   2.2341  770
  #      division   2.8497 1202
  #      outer_grid  974
        outer_grid  302
  ################################################################################
  #
  #  Definition of "minimal" basis
  #
  ################################################################################
  #     valence basis states
      valence      5  s   1.
      valence      4  p   6.
      valence      4  d  10.
  #     ion occupancy
      ion_occ     5  s   0.
      ion_occ     4  p   6.
      ion_occ     4  d   9.
  ################################################################################
  #
  #  Suggested additional basis functions. For production calculations,
  #  uncomment them one after another (the most important basis functions are
  #  listed first).
  #
  #  Constructed for dimers: 2.1 A, 2.45 A, 3.00 A, 4.00 A
  #
  ################################################################################
  #  "First tier" - max. impr. -144.99  meV, min. impr. -3.42 meV
       ionic 5 p auto
       hydro 4 f 7.6
       hydro 3 s 2.6
    for_aux   hydro 5 g 9.8
       hydro 4 d 8.4
  #  "Second tier" - max. impr. -3.10  meV, min. impr. -0.64 meV
  #     hydro 5 f 16.8
  #     hydro 6 h 13.2
  #     hydro 4 p 5
  #     hydro 4 d 4.3
  #     hydro 5 s 17.2
  #  "Third tier" - max. impr. -0.48  meV, min. impr. -0.12 meV
  #     hydro 4 f 19.2
  #     hydro 5 f 8.4
  #     hydro 6 p 12
  #     hydro 5 g 12.8
  #     hydro 5 d 8.4
  #     hydro 5 s 5.8
  #     hydro 6 h 15.2
  ################################################################################
  #
  #  FHI-aims code project
  #  Volker Blum, 2017
  #
  #  Suggested "intermediate" defaults for H atom (to be pasted into control.in file)
  #
  ################################################################################
    species        H
  #     global species definitions
      nucleus             1
      mass                1.00794
  #
      l_hartree           4
  #
      cut_pot             5.0  2.0  1.0
      basis_dep_cutoff    1e-4
  #
      radial_base         24 7.0
      radial_multiplier   2
      angular_grids       specified
        division   0.1930   50
        division   0.3175  110
        division   0.4293  194
        division   0.5066  302
  #      division   0.5626  434
  #      division   0.5922  590
  #      division   0.6227  974
  #      division   0.6868 1202
  #      outer_grid  770
        outer_grid  302
  ################################################################################
  #
  #  Definition of "minimal" basis
  #
  ################################################################################
  #     valence basis states
      valence      1  s   1.
  #     ion occupancy
      ion_occ      1  s   0.5
  ################################################################################
  ################################################################################
  #
  #  Suggested additional basis functions. For production calculations,
  #  uncomment them one after another (the most important basis functions are
  #  listed first).
  #
  #  Basis constructed for dimers: 0.5 A, 0.7 A, 1.0 A, 1.5 A, 2.5 A
  #
  ################################################################################
  #  "First tier" - improvements: -1014.90 meV to -62.69 meV
       hydro 2 s 2.1
       hydro 2 p 3.5
  #  "Second tier" - improvements: -12.89 meV to -1.83 meV
       hydro 1 s 0.85
  #     hydro 2 p 3.7
  #     hydro 2 s 1.2
    for_aux    hydro 3 d 7
  #  "Third tier" - improvements: -0.25 meV to -0.12 meV
  #     hydro 4 f 11.2
  #     hydro 3 p 4.8
  #     hydro 4 d 9
  #     hydro 3 s 3.2
  
  
  -----------------------------------------------------------------------
  Completed first pass over input file control.in .
  -----------------------------------------------------------------------
  
  
  -----------------------------------------------------------------------
  Parsing geometry.in (first pass over file, find array dimensions only).
  The contents of geometry.in will be repeated verbatim below
  unless switched off by setting 'verbatim_writeout .false.' .
  in the first line of geometry.in .
  -----------------------------------------------------------------------
  
  #
  # This is the geometry file that corresponds to the current relaxation step.
  # If you do not want this file to be written, set the "write_restart_geometry" flag to .false.
  #  aims_uuid : AF41AAD3-EECC-435C-AAE8-982AC4DB1982
  #
    set_vacuum_level        44.182050
  lattice_vector     11.55497333      0.00000000      0.00000000
  lattice_vector      0.00000000     10.00690044      0.00000000
  lattice_vector      0.00000000      0.00000000     65.00000000
  atom       4.94259804      4.60522109      9.70476816 H
  atom       5.08156993      4.70565071     10.43955615 H
  atom       0.00000000      0.00000000      0.00000000 Ag
    constrain_relaxation .true.
  atom       2.88874000      0.00000000      0.00000000 Ag
    constrain_relaxation .true.
  atom       5.77750000      0.00000000      0.00000000 Ag
    constrain_relaxation .true.
  atom       8.66623000      0.00000000      0.00000000 Ag
    constrain_relaxation .true.
  atom       1.44437000      2.50173000      0.00000000 Ag
    constrain_relaxation .true.
  atom       4.33311000      2.50173000      0.00000000 Ag
    constrain_relaxation .true.
  atom       7.22184000      2.50173000      0.00000000 Ag
    constrain_relaxation .true.
  atom      10.11060000      2.50173000      0.00000000 Ag
    constrain_relaxation .true.
  atom       0.00000000      5.00345000      0.00000000 Ag
    constrain_relaxation .true.
  atom       2.88874000      5.00345000      0.00000000 Ag
    constrain_relaxation .true.
  atom       5.77750000      5.00345000      0.00000000 Ag
    constrain_relaxation .true.
  atom       8.66623000      5.00345000      0.00000000 Ag
    constrain_relaxation .true.
  atom       1.44437000      7.50516000      0.00000000 Ag
    constrain_relaxation .true.
  atom       4.33311000      7.50516000      0.00000000 Ag
    constrain_relaxation .true.
  atom       7.22184000      7.50516000      0.00000000 Ag
    constrain_relaxation .true.
  atom      10.11060000      7.50516000      0.00000000 Ag
    constrain_relaxation .true.
  atom       1.44437000      0.83390900      2.35865000 Ag
    constrain_relaxation .true.
  atom       4.33311000      0.83390900      2.35865000 Ag
    constrain_relaxation .true.
  atom       7.22184000      0.83390900      2.35865000 Ag
    constrain_relaxation .true.
  atom      10.11060000      0.83390900      2.35865000 Ag
    constrain_relaxation .true.
  atom       0.00000000      3.33563000      2.35865000 Ag
    constrain_relaxation .true.
  atom       2.88874000      3.33563000      2.35865000 Ag
    constrain_relaxation .true.
  atom       5.77750000      3.33563000      2.35865000 Ag
    constrain_relaxation .true.
  atom       8.66623000      3.33563000      2.35865000 Ag
    constrain_relaxation .true.
  atom       1.44437000      5.83735000      2.35865000 Ag
    constrain_relaxation .true.
  atom       4.33311000      5.83735000      2.35865000 Ag
    constrain_relaxation .true.
  atom       7.22184000      5.83735000      2.35865000 Ag
    constrain_relaxation .true.
  atom      10.11060000      5.83735000      2.35865000 Ag
    constrain_relaxation .true.
  atom       0.00000000      8.33909000      2.35865000 Ag
    constrain_relaxation .true.
  atom       2.88874000      8.33909000      2.35865000 Ag
    constrain_relaxation .true.
  atom       5.77750000      8.33909000      2.35865000 Ag
    constrain_relaxation .true.
  atom       8.66623000      8.33909000      2.35865000 Ag
    constrain_relaxation .true.
  atom       0.00058477      1.68574000      4.64091000 Ag
    constrain_relaxation .true.
  atom       2.88895000      1.68491000      4.64080000 Ag
    constrain_relaxation .true.
  atom       5.77708000      1.68425000      4.64090000 Ag
    constrain_relaxation .true.
  atom       8.66559000      1.68479000      4.64088000 Ag
    constrain_relaxation .true.
  atom       1.44432000      4.18729000      4.64062000 Ag
    constrain_relaxation .true.
  atom       4.33302000      4.18584000      4.64129000 Ag
    constrain_relaxation .true.
  atom       7.22057000      4.18656000      4.64137000 Ag
    constrain_relaxation .true.
  atom      10.10990000      4.18652000      4.64062000 Ag
    constrain_relaxation .true.
  atom       0.00023522      6.68885000      4.64023000 Ag
    constrain_relaxation .true.
  atom       2.88933000      6.68801000      4.64129000 Ag
    constrain_relaxation .true.
  atom       5.77682000      6.68769000      4.64139000 Ag
    constrain_relaxation .true.
  atom       8.66575000      6.68843000      4.64056000 Ag
    constrain_relaxation .true.
  atom       1.44541000      9.19017000      4.64093000 Ag
    constrain_relaxation .true.
  atom       4.33356000      9.18985000      4.64094000 Ag
    constrain_relaxation .true.
  atom       7.22168000      9.18953000      4.64092000 Ag
    constrain_relaxation .true.
  atom      10.11090000      9.19054000      4.64006000 Ag
    constrain_relaxation .true.
  atom       0.00059211      0.01663295      6.93191122 Ag
  atom       2.88946377      0.01694693      6.93241562 Ag
  atom       5.77698632      0.01595855      6.93378687 Ag
  atom       8.66608443      0.01550879      6.93254199 Ag
  atom       1.44458522      2.51900802      6.93254584 Ag
  atom       4.33322789      2.51854072      6.93343689 Ag
  atom       7.22141218      2.51709247      6.93353002 Ag
  atom      10.10967307      2.51816732      6.93227566 Ag
  atom      -0.00086682      5.01993218      6.93130887 Ag
  atom       2.88944366      5.01945394      6.93385702 Ag
  atom       5.77677410      5.01898768      6.93740546 Ag
  atom       8.66442305      5.01971623      6.93347990 Ag
  atom       1.44465898      7.52127445      6.93185601 Ag
  atom       4.33414846      7.52081429      6.93486825 Ag
  atom       7.22074556      7.52065293      6.93402676 Ag
  atom      10.11051726      7.52176303      6.93199892 Ag
  atom       7.22840000      4.14508000     14.32980000 Ag
    constrain_relaxation .true.
  atom       5.76311000      6.68372000     14.32890000 Ag
    constrain_relaxation .true.
  atom       4.29779000      4.14508000     14.32980000 Ag
    constrain_relaxation .true.
  atom       5.76311000      3.20277000     16.55840000 Ag
    constrain_relaxation .true.
  atom       8.65861000      3.31994000     16.56960000 Ag
    constrain_relaxation .true.
  atom       7.31339000      5.88715000     16.55790000 Ag
    constrain_relaxation .true.
  atom       4.21286000      5.88715000     16.55790000 Ag
    constrain_relaxation .true.
  atom       5.76311000      8.33507000     16.56880000 Ag
    constrain_relaxation .true.
  atom       2.86762000      3.31993000     16.56960000 Ag
    constrain_relaxation .true.
  atom       7.23131000      2.44940000     18.86410000 Ag
    constrain_relaxation .true.
  atom       5.76311000      4.99234000     18.86410000 Ag
    constrain_relaxation .true.
  atom       4.29495000      2.44940000     18.86410000 Ag
    constrain_relaxation .true.
  atom       8.69946000      4.99234000     18.86410000 Ag
    constrain_relaxation .true.
  atom      10.16760000      2.44940000     18.86410000 Ag
    constrain_relaxation .true.
  atom       7.23131000      7.53527000     18.86410000 Ag
    constrain_relaxation .true.
  atom       4.29495000      7.53527000     18.86410000 Ag
    constrain_relaxation .true.
  atom       2.82679000      4.99234000     18.86410000 Ag
    constrain_relaxation .true.
  atom       5.76311000     10.07820000     18.86410000 Ag
    constrain_relaxation .true.
  atom       1.43349000      2.62685000     18.80440000 Ag
    constrain_relaxation .true.
  #
  # What follows is the current estimated Hessian matrix constructed by the BFGS algorithm.
  # This is NOT the true Hessian matrix of the system.
  # If you do not want this information here, switch it off using the "hessian_to_restart_geometry" keyword.
  #
  
  -----------------------------------------------------------------------
  Completed first pass over input file geometry.in .
  -----------------------------------------------------------------------
  

  Basic array size parameters:
  | Number of species                 :        2
  | Number of atoms                   :       85
  | Number of lattice vectors         :        3
  | Max. basis fn. angular momentum   :        4
  | Max. atomic/ionic basis occupied n:        5
  | Max. number of basis fn. types    :        3
  | Max. radial fns per species/type  :       10
  | Max. logarithmic grid size        :     1446
  | Max. radial integration grid size :      125
  | Max. angular integration grid size:      302
  | Max. angular grid division number :        8
  | Radial grid for Hartree potential :     1446
  | Number of spin channels           :        1

------------------------------------------------------------
          Reading file control.in.
------------------------------------------------------------
  XC: Using PBE gradient-corrected functionals.
  Spin treatment: No spin polarisation.
  Scalar relativistic treatment of kinetic energy: on-site free-atom approximation to ZORA.
  Charge =   0.000000E+00: Neutral system requested explicitly.
  Found k-point grid:         2         2         1
  Using libMBD for calculating MBD and TS energies
  Using dipole correction.
  Convergence accuracy of self-consistent charge density:  0.1000E-03
  Convergence accuracy of sum of eigenvalues:  0.1000E-02
  Convergence accuracy of total energy:  0.1000E-04
  Geometry relaxation: Modified BFGS - TRM (trust radius method) for lattice optimization.
  Convergence accuracy for geometry relaxation: Maximum force <   0.100000E-01 eV/A.
 
  Reading configuration options for species Ag                  .
  | Found nuclear charge :  47.0000
  | Found atomic mass :    107.868200000000      amu
  | Found l_max for Hartree potential  :   4
  | Found cutoff potl. onset [A], width [A], scale factor :    5.00000    2.00000    1.00000
  | Threshold for basis-dependent cutoff potential is   0.100000E-03
  | Found data for basic radial integration grid :    62 points, outermost radius =    7.000 A
  | Found multiplier for basic radial grid :   2
  | Found angular grid specification: user-specified.
  | Specified grid contains     5 separate shells.
  | Check grid settings after all constraints further below.
  | Found free-atom valence shell :  5 s   1.000
  | Found free-atom valence shell :  4 p   6.000
  | Found free-atom valence shell :  4 d  10.000
  | Found free-ion valence shell :  5 s   0.000
  | Found free-ion valence shell :  4 p   6.000
  | Found free-ion valence shell :  4 d   9.000
  | Found ionic basis function :  5 p , default cutoff radius.
  | Found hydrogenic basis function :  4 f   7.600
  | Found hydrogenic basis function :  3 s   2.600
  | Found hydrogenic extended basis function :  5 g   9.800
  | Found hydrogenic basis function :  4 d   8.400
  Species Ag                  : Missing cutoff potential type.
  Defaulting to exp(1/x)/(1-x)^2 type cutoff potential.
  Species Ag: No 'logarithmic' tag. Using default grid for free atom:
  | Default logarithmic grid data [bohr] : 0.1000E-03 0.1000E+03 0.1012E+01
  | Will include ionic basis functions of  2.0-fold positive Ag                   ion.
  Species Ag: On-site basis accuracy parameter (for Gram-Schmidt orthonormalisation) not specified.
  Using default value basis_acc =  0.1000000E-03.
  Species Ag                  : Using default innermost maximum threshold i_radial=  2 for radial functions.
  Species Ag                  : Default cutoff onset for free atom density etc. : 0.50000000E+01 AA.
  Species Ag                  : Basic radial grid will be enhanced according to radial_multiplier =   2, to contain   125 grid points.
 
  Reading configuration options for species H                   .
  | Found nuclear charge :   1.0000
  | Found atomic mass :    1.00794000000000      amu
  | Found l_max for Hartree potential  :   4
  | Found cutoff potl. onset [A], width [A], scale factor :    5.00000    2.00000    1.00000
  | Threshold for basis-dependent cutoff potential is   0.100000E-03
  | Found data for basic radial integration grid :    24 points, outermost radius =    7.000 A
  | Found multiplier for basic radial grid :   2
  | Found angular grid specification: user-specified.
  | Specified grid contains     5 separate shells.
  | Check grid settings after all constraints further below.
  | Found free-atom valence shell :  1 s   1.000
  | Found free-ion valence shell :  1 s   0.500
  | Found hydrogenic basis function :  2 s   2.100
  | Found hydrogenic basis function :  2 p   3.500
  | Found hydrogenic basis function :  1 s   0.850
  | Found hydrogenic extended basis function :  3 d   7.000
  Species H                   : Missing cutoff potential type.
  Defaulting to exp(1/x)/(1-x)^2 type cutoff potential.
  Species H : No 'logarithmic' tag. Using default grid for free atom:
  | Default logarithmic grid data [bohr] : 0.1000E-03 0.1000E+03 0.1012E+01
  Species H : On-site basis accuracy parameter (for Gram-Schmidt orthonormalisation) not specified.
  Using default value basis_acc =  0.1000000E-03.
  Species H                   : Using default innermost maximum threshold i_radial=  2 for radial functions.
  Species H                   : Default cutoff onset for free atom density etc. : 0.50000000E+01 AA.
  Species H                   : Basic radial grid will be enhanced according to radial_multiplier =   2, to contain    49 grid points.
 
  Finished reading input file 'control.in'.
 
------------------------------------------------------------


------------------------------------------------------------
          Reading geometry description geometry.in.
------------------------------------------------------------
  Vacuum level in z-axis :   0.441820E+02
  Found relaxation constraint for atom      3: All coordinates fixed.
  Found relaxation constraint for atom      4: All coordinates fixed.
  Found relaxation constraint for atom      5: All coordinates fixed.
  Found relaxation constraint for atom      6: All coordinates fixed.
  Found relaxation constraint for atom      7: All coordinates fixed.
  Found relaxation constraint for atom      8: All coordinates fixed.
  Found relaxation constraint for atom      9: All coordinates fixed.
  Found relaxation constraint for atom     10: All coordinates fixed.
  Found relaxation constraint for atom     11: All coordinates fixed.
  Found relaxation constraint for atom     12: All coordinates fixed.
  Found relaxation constraint for atom     13: All coordinates fixed.
  Found relaxation constraint for atom     14: All coordinates fixed.
  Found relaxation constraint for atom     15: All coordinates fixed.
  Found relaxation constraint for atom     16: All coordinates fixed.
  Found relaxation constraint for atom     17: All coordinates fixed.
  Found relaxation constraint for atom     18: All coordinates fixed.
  Found relaxation constraint for atom     19: All coordinates fixed.
  Found relaxation constraint for atom     20: All coordinates fixed.
  Found relaxation constraint for atom     21: All coordinates fixed.
  Found relaxation constraint for atom     22: All coordinates fixed.
  Found relaxation constraint for atom     23: All coordinates fixed.
  Found relaxation constraint for atom     24: All coordinates fixed.
  Found relaxation constraint for atom     25: All coordinates fixed.
  Found relaxation constraint for atom     26: All coordinates fixed.
  Found relaxation constraint for atom     27: All coordinates fixed.
  Found relaxation constraint for atom     28: All coordinates fixed.
  Found relaxation constraint for atom     29: All coordinates fixed.
  Found relaxation constraint for atom     30: All coordinates fixed.
  Found relaxation constraint for atom     31: All coordinates fixed.
  Found relaxation constraint for atom     32: All coordinates fixed.
  Found relaxation constraint for atom     33: All coordinates fixed.
  Found relaxation constraint for atom     34: All coordinates fixed.
  Found relaxation constraint for atom     35: All coordinates fixed.
  Found relaxation constraint for atom     36: All coordinates fixed.
  Found relaxation constraint for atom     37: All coordinates fixed.
  Found relaxation constraint for atom     38: All coordinates fixed.
  Found relaxation constraint for atom     39: All coordinates fixed.
  Found relaxation constraint for atom     40: All coordinates fixed.
  Found relaxation constraint for atom     41: All coordinates fixed.
  Found relaxation constraint for atom     42: All coordinates fixed.
  Found relaxation constraint for atom     43: All coordinates fixed.
  Found relaxation constraint for atom     44: All coordinates fixed.
  Found relaxation constraint for atom     45: All coordinates fixed.
  Found relaxation constraint for atom     46: All coordinates fixed.
  Found relaxation constraint for atom     47: All coordinates fixed.
  Found relaxation constraint for atom     48: All coordinates fixed.
  Found relaxation constraint for atom     49: All coordinates fixed.
  Found relaxation constraint for atom     50: All coordinates fixed.
  Found relaxation constraint for atom     67: All coordinates fixed.
  Found relaxation constraint for atom     68: All coordinates fixed.
  Found relaxation constraint for atom     69: All coordinates fixed.
  Found relaxation constraint for atom     70: All coordinates fixed.
  Found relaxation constraint for atom     71: All coordinates fixed.
  Found relaxation constraint for atom     72: All coordinates fixed.
  Found relaxation constraint for atom     73: All coordinates fixed.
  Found relaxation constraint for atom     74: All coordinates fixed.
  Found relaxation constraint for atom     75: All coordinates fixed.
  Found relaxation constraint for atom     76: All coordinates fixed.
  Found relaxation constraint for atom     77: All coordinates fixed.
  Found relaxation constraint for atom     78: All coordinates fixed.
  Found relaxation constraint for atom     79: All coordinates fixed.
  Found relaxation constraint for atom     80: All coordinates fixed.
  Found relaxation constraint for atom     81: All coordinates fixed.
  Found relaxation constraint for atom     82: All coordinates fixed.
  Found relaxation constraint for atom     83: All coordinates fixed.
  Found relaxation constraint for atom     84: All coordinates fixed.
  Found relaxation constraint for atom     85: All coordinates fixed.
  | The smallest distance between any two atoms is         0.75452812 AA.
  | The first atom of this pair is atom number                      1 .
  | The second atom of this pair is atom number                     2 .
  | Wigner-Seitz cell of the first atom image           0     0     0 .
  | (The Wigner-Seitz cell of the second atom is 0 0 0  by definition.)

  Symmetry information by spglib:
  | Precision set to  0.1E-04
  | Number of Operations  : 1
  | Space group           : 1
  | International         : P1
  | Schoenflies           : C1^1
  Input structure read successfully.
  The structure contains       85 atoms,  and a total of       3903.000 electrons.

  Input geometry:
  | Unit cell:
  |       11.55497333        0.00000000        0.00000000
  |        0.00000000       10.00690044        0.00000000
  |        0.00000000        0.00000000       65.00000000
  | Atomic structure:
  |       Atom                x [A]            y [A]            z [A]
  |    1: Species H             4.94259804        4.60522109        9.70476816
  |    2: Species H             5.08156993        4.70565071       10.43955615
  |    3: Species Ag            0.00000000        0.00000000        0.00000000
  |    4: Species Ag            2.88874000        0.00000000        0.00000000
  |    5: Species Ag            5.77750000        0.00000000        0.00000000
  |    6: Species Ag            8.66623000        0.00000000        0.00000000
  |    7: Species Ag            1.44437000        2.50173000        0.00000000
  |    8: Species Ag            4.33311000        2.50173000        0.00000000
  |    9: Species Ag            7.22184000        2.50173000        0.00000000
  |   10: Species Ag           10.11060000        2.50173000        0.00000000
  |   11: Species Ag            0.00000000        5.00345000        0.00000000
  |   12: Species Ag            2.88874000        5.00345000        0.00000000
  |   13: Species Ag            5.77750000        5.00345000        0.00000000
  |   14: Species Ag            8.66623000        5.00345000        0.00000000
  |   15: Species Ag            1.44437000        7.50516000        0.00000000
  |   16: Species Ag            4.33311000        7.50516000        0.00000000
  |   17: Species Ag            7.22184000        7.50516000        0.00000000
  |   18: Species Ag           10.11060000        7.50516000        0.00000000
  |   19: Species Ag            1.44437000        0.83390900        2.35865000
  |   20: Species Ag            4.33311000        0.83390900        2.35865000
  |   21: Species Ag            7.22184000        0.83390900        2.35865000
  |   22: Species Ag           10.11060000        0.83390900        2.35865000
  |   23: Species Ag            0.00000000        3.33563000        2.35865000
  |   24: Species Ag            2.88874000        3.33563000        2.35865000
  |   25: Species Ag            5.77750000        3.33563000        2.35865000
  |   26: Species Ag            8.66623000        3.33563000        2.35865000
  |   27: Species Ag            1.44437000        5.83735000        2.35865000
  |   28: Species Ag            4.33311000        5.83735000        2.35865000
  |   29: Species Ag            7.22184000        5.83735000        2.35865000
  |   30: Species Ag           10.11060000        5.83735000        2.35865000
  |   31: Species Ag            0.00000000        8.33909000        2.35865000
  |   32: Species Ag            2.88874000        8.33909000        2.35865000
  |   33: Species Ag            5.77750000        8.33909000        2.35865000
  |   34: Species Ag            8.66623000        8.33909000        2.35865000
  |   35: Species Ag            0.00058477        1.68574000        4.64091000
  |   36: Species Ag            2.88895000        1.68491000        4.64080000
  |   37: Species Ag            5.77708000        1.68425000        4.64090000
  |   38: Species Ag            8.66559000        1.68479000        4.64088000
  |   39: Species Ag            1.44432000        4.18729000        4.64062000
  |   40: Species Ag            4.33302000        4.18584000        4.64129000
  |   41: Species Ag            7.22057000        4.18656000        4.64137000
  |   42: Species Ag           10.10990000        4.18652000        4.64062000
  |   43: Species Ag            0.00023522        6.68885000        4.64023000
  |   44: Species Ag            2.88933000        6.68801000        4.64129000
  |   45: Species Ag            5.77682000        6.68769000        4.64139000
  |   46: Species Ag            8.66575000        6.68843000        4.64056000
  |   47: Species Ag            1.44541000        9.19017000        4.64093000
  |   48: Species Ag            4.33356000        9.18985000        4.64094000
  |   49: Species Ag            7.22168000        9.18953000        4.64092000
  |   50: Species Ag           10.11090000        9.19054000        4.64006000
  |   51: Species Ag            0.00059211        0.01663295        6.93191122
  |   52: Species Ag            2.88946377        0.01694693        6.93241562
  |   53: Species Ag            5.77698632        0.01595855        6.93378687
  |   54: Species Ag            8.66608443        0.01550879        6.93254199
  |   55: Species Ag            1.44458522        2.51900802        6.93254584
  |   56: Species Ag            4.33322789        2.51854072        6.93343689
  |   57: Species Ag            7.22141218        2.51709247        6.93353002
  |   58: Species Ag           10.10967307        2.51816732        6.93227566
  |   59: Species Ag           -0.00086682        5.01993218        6.93130887
  |   60: Species Ag            2.88944366        5.01945394        6.93385702
  |   61: Species Ag            5.77677410        5.01898768        6.93740546
  |   62: Species Ag            8.66442305        5.01971623        6.93347990
  |   63: Species Ag            1.44465898        7.52127445        6.93185601
  |   64: Species Ag            4.33414846        7.52081429        6.93486825
  |   65: Species Ag            7.22074556        7.52065293        6.93402676
  |   66: Species Ag           10.11051726        7.52176303        6.93199892
  |   67: Species Ag            7.22840000        4.14508000       14.32980000
  |   68: Species Ag            5.76311000        6.68372000       14.32890000
  |   69: Species Ag            4.29779000        4.14508000       14.32980000
  |   70: Species Ag            5.76311000        3.20277000       16.55840000
  |   71: Species Ag            8.65861000        3.31994000       16.56960000
  |   72: Species Ag            7.31339000        5.88715000       16.55790000
  |   73: Species Ag            4.21286000        5.88715000       16.55790000
  |   74: Species Ag            5.76311000        8.33507000       16.56880000
  |   75: Species Ag            2.86762000        3.31993000       16.56960000
  |   76: Species Ag            7.23131000        2.44940000       18.86410000
  |   77: Species Ag            5.76311000        4.99234000       18.86410000
  |   78: Species Ag            4.29495000        2.44940000       18.86410000
  |   79: Species Ag            8.69946000        4.99234000       18.86410000
  |   80: Species Ag           10.16760000        2.44940000       18.86410000
  |   81: Species Ag            7.23131000        7.53527000       18.86410000
  |   82: Species Ag            4.29495000        7.53527000       18.86410000
  |   83: Species Ag            2.82679000        4.99234000       18.86410000
  |   84: Species Ag            5.76311000       10.07820000       18.86410000
  |   85: Species Ag            1.43349000        2.62685000       18.80440000

  Lattice parameters for 3D lattice (in Angstroms) :    11.554973   10.006900   65.000000
  Angle(s) between unit vectors (in degrees)       :    90.000000   90.000000   90.000000


  Quantities derived from the lattice vectors (in Angstrom^-1):
  | Reciprocal lattice vector 1:  0.543765  0.000000  0.000000
  | Reciprocal lattice vector 2:  0.000000  0.627885  0.000000
  | Reciprocal lattice vector 3:  0.000000  0.000000  0.096664
  | Unit cell volume                               :   0.751592E+04  Angstrom^3

  Fractional coordinates:
                         L1                L2                L3
       atom_frac         0.42774638        0.46020455        0.14930413  H
       atom_frac         0.43977340        0.47024058        0.16060856  H
       atom_frac         0.00000000        0.00000000        0.00000000  Ag
       atom_frac         0.24999971        0.00000000        0.00000000  Ag
       atom_frac         0.50000115        0.00000000        0.00000000  Ag
       atom_frac         0.75000000        0.00000000        0.00000000  Ag
       atom_frac         0.12499986        0.25000049        0.00000000  Ag
       atom_frac         0.37499957        0.25000049        0.00000000  Ag
       atom_frac         0.62499841        0.25000049        0.00000000  Ag
       atom_frac         0.87499986        0.25000049        0.00000000  Ag
       atom_frac         0.00000000        0.49999998        0.00000000  Ag
       atom_frac         0.24999971        0.49999998        0.00000000  Ag
       atom_frac         0.50000115        0.49999998        0.00000000  Ag
       atom_frac         0.75000000        0.49999998        0.00000000  Ag
       atom_frac         0.12499986        0.74999847        0.00000000  Ag
       atom_frac         0.37499957        0.74999847        0.00000000  Ag
       atom_frac         0.62499841        0.74999847        0.00000000  Ag
       atom_frac         0.87499986        0.74999847        0.00000000  Ag
       atom_frac         0.12499986        0.08333340        0.03628692  Ag
       atom_frac         0.37499957        0.08333340        0.03628692  Ag
       atom_frac         0.62499841        0.08333340        0.03628692  Ag
       atom_frac         0.87499986        0.08333340        0.03628692  Ag
       atom_frac         0.00000000        0.33333299        0.03628692  Ag
       atom_frac         0.24999971        0.33333299        0.03628692  Ag
       atom_frac         0.50000115        0.33333299        0.03628692  Ag
       atom_frac         0.75000000        0.33333299        0.03628692  Ag
       atom_frac         0.12499986        0.58333247        0.03628692  Ag
       atom_frac         0.37499957        0.58333247        0.03628692  Ag
       atom_frac         0.62499841        0.58333247        0.03628692  Ag
       atom_frac         0.87499986        0.58333247        0.03628692  Ag
       atom_frac         0.00000000        0.83333396        0.03628692  Ag
       atom_frac         0.24999971        0.83333396        0.03628692  Ag
       atom_frac         0.50000115        0.83333396        0.03628692  Ag
       atom_frac         0.75000000        0.83333396        0.03628692  Ag
       atom_frac         0.00005061        0.16845776        0.07139862  Ag
       atom_frac         0.25001789        0.16837481        0.07139692  Ag
       atom_frac         0.49996481        0.16830886        0.07139846  Ag
       atom_frac         0.74994461        0.16836282        0.07139815  Ag
       atom_frac         0.12499553        0.41844026        0.07139415  Ag
       atom_frac         0.37499178        0.41829536        0.07140446  Ag
       atom_frac         0.62488850        0.41836731        0.07140569  Ag
       atom_frac         0.87493928        0.41836331        0.07139415  Ag
       atom_frac         0.00002036        0.66842376        0.07138815  Ag
       atom_frac         0.25005077        0.66833982        0.07140446  Ag
       atom_frac         0.49994230        0.66830784        0.07140600  Ag
       atom_frac         0.74995846        0.66838179        0.07139323  Ag
       atom_frac         0.12508986        0.91838328        0.07139892  Ag
       atom_frac         0.37503851        0.91835130        0.07139908  Ag
       atom_frac         0.62498457        0.91831932        0.07139877  Ag
       atom_frac         0.87502582        0.91842025        0.07138554  Ag
       atom_frac         0.00005124        0.00166215        0.10664479  Ag
       atom_frac         0.25006235        0.00169352        0.10665255  Ag
       atom_frac         0.49995670        0.00159475        0.10667364  Ag
       atom_frac         0.74998740        0.00154981        0.10665449  Ag
       atom_frac         0.12501848        0.25172710        0.10665455  Ag
       atom_frac         0.37500977        0.25168040        0.10666826  Ag
       atom_frac         0.62496139        0.25153568        0.10666969  Ag
       atom_frac         0.87491964        0.25164309        0.10665039  Ag
       atom_frac        -0.00007502        0.50164706        0.10663552  Ag
       atom_frac         0.25006061        0.50159927        0.10667472  Ag
       atom_frac         0.49993833        0.50155267        0.10672931  Ag
       atom_frac         0.74984362        0.50162548        0.10666892  Ag
       atom_frac         0.12502486        0.75160880        0.10664394  Ag
       atom_frac         0.37508944        0.75156282        0.10669028  Ag
       atom_frac         0.62490370        0.75154669        0.10667733  Ag
       atom_frac         0.87499270        0.75165763        0.10664614  Ag
       atom_frac         0.62556613        0.41422217        0.22045846  Ag
       atom_frac         0.49875580        0.66791111        0.22044462  Ag
       atom_frac         0.37194287        0.41422217        0.22045846  Ag
       atom_frac         0.49875580        0.32005615        0.25474462  Ag
       atom_frac         0.74934054        0.33176507        0.25491692  Ag
       atom_frac         0.63292141        0.58830904        0.25473692  Ag
       atom_frac         0.36459279        0.58830904        0.25473692  Ag
       atom_frac         0.49875580        0.83293224        0.25490462  Ag
       atom_frac         0.24817193        0.33176407        0.25491692  Ag
       atom_frac         0.62581797        0.24477110        0.29021692  Ag
       atom_frac         0.49875580        0.49888974        0.29021692  Ag
       atom_frac         0.37169709        0.24477110        0.29021692  Ag
       atom_frac         0.75287582        0.49888974        0.29021692  Ag
       atom_frac         0.87993280        0.24477110        0.29021692  Ag
       atom_frac         0.62581797        0.75300739        0.29021692  Ag
       atom_frac         0.37169709        0.75300739        0.29021692  Ag
       atom_frac         0.24463838        0.49888974        0.29021692  Ag
       atom_frac         0.49875580        1.00712504        0.29021692  Ag
       atom_frac         0.12405827        0.26250386        0.28929846  Ag

  Slab Identifier: This is Z-oriented slab and maximum thickness of the vacuum is: 46.136 Angstrom.
 
  Finished reading input file 'geometry.in'.
 

 
  Consistency checks for stacksize environment parameter are next.
 
  | Maximum stacksize for task 0: unlimited
  | Maximum stacksize for task 1: unlimited
  | Maximum stacksize for task 2: unlimited
  | Maximum stacksize for task 3: unlimited
  | Maximum stacksize for task 4: unlimited
  | Maximum stacksize for task 5: unlimited
  | Maximum stacksize for task 6: unlimited
  | Maximum stacksize for task 7: unlimited
  | Maximum stacksize for task 8: unlimited
  | Maximum stacksize for task 9: unlimited
  | Maximum stacksize for task 10: unlimited
  | Maximum stacksize for task 11: unlimited
  | Maximum stacksize for task 12: unlimited
  | Maximum stacksize for task 13: unlimited
  | Maximum stacksize for task 14: unlimited
  | Maximum stacksize for task 15: unlimited
  | Maximum stacksize for task 16: unlimited
  | Maximum stacksize for task 17: unlimited
  | Maximum stacksize for task 18: unlimited
  | Maximum stacksize for task 19: unlimited
  | Maximum stacksize for task 20: unlimited
  | Maximum stacksize for task 21: unlimited
  | Maximum stacksize for task 22: unlimited
  | Maximum stacksize for task 23: unlimited
  | Maximum stacksize for task 24: unlimited
  | Maximum stacksize for task 25: unlimited
  | Maximum stacksize for task 26: unlimited
  | Maximum stacksize for task 27: unlimited
  | Maximum stacksize for task 28: unlimited
  | Maximum stacksize for task 29: unlimited
  | Maximum stacksize for task 30: unlimited
  | Maximum stacksize for task 31: unlimited
  | Maximum stacksize for task 32: unlimited
  | Maximum stacksize for task 33: unlimited
  | Maximum stacksize for task 34: unlimited
  | Maximum stacksize for task 35: unlimited
  | Maximum stacksize for task 36: unlimited
  | Maximum stacksize for task 37: unlimited
  | Maximum stacksize for task 38: unlimited
  | Maximum stacksize for task 39: unlimited
  | Maximum stacksize for task 40: unlimited
  | Maximum stacksize for task 41: unlimited
  | Maximum stacksize for task 42: unlimited
  | Maximum stacksize for task 43: unlimited
  | Maximum stacksize for task 44: unlimited
  | Maximum stacksize for task 45: unlimited
  | Maximum stacksize for task 46: unlimited
  | Maximum stacksize for task 47: unlimited
  | Maximum stacksize for task 48: unlimited
  | Maximum stacksize for task 49: unlimited
  | Maximum stacksize for task 50: unlimited
  | Maximum stacksize for task 51: unlimited
  | Maximum stacksize for task 52: unlimited
  | Maximum stacksize for task 53: unlimited
  | Maximum stacksize for task 54: unlimited
  | Maximum stacksize for task 55: unlimited
  | Maximum stacksize for task 56: unlimited
  | Maximum stacksize for task 57: unlimited
  | Maximum stacksize for task 58: unlimited
  | Maximum stacksize for task 59: unlimited
  | Maximum stacksize for task 60: unlimited
  | Maximum stacksize for task 61: unlimited
  | Maximum stacksize for task 62: unlimited
  | Maximum stacksize for task 63: unlimited
  | Maximum stacksize for task 64: unlimited
  | Maximum stacksize for task 65: unlimited
  | Maximum stacksize for task 66: unlimited
  | Maximum stacksize for task 67: unlimited
  | Maximum stacksize for task 68: unlimited
  | Maximum stacksize for task 69: unlimited
  | Maximum stacksize for task 70: unlimited
  | Maximum stacksize for task 71: unlimited
  | Maximum stacksize for task 72: unlimited
  | Maximum stacksize for task 73: unlimited
  | Maximum stacksize for task 74: unlimited
  | Maximum stacksize for task 75: unlimited
  | Maximum stacksize for task 76: unlimited
  | Maximum stacksize for task 77: unlimited
  | Maximum stacksize for task 78: unlimited
  | Maximum stacksize for task 79: unlimited
  | Maximum stacksize for task 80: unlimited
  | Maximum stacksize for task 81: unlimited
  | Maximum stacksize for task 82: unlimited
  | Maximum stacksize for task 83: unlimited
  | Maximum stacksize for task 84: unlimited
  | Maximum stacksize for task 85: unlimited
  | Maximum stacksize for task 86: unlimited
  | Maximum stacksize for task 87: unlimited
  | Maximum stacksize for task 88: unlimited
  | Maximum stacksize for task 89: unlimited
  | Maximum stacksize for task 90: unlimited
  | Maximum stacksize for task 91: unlimited
  | Maximum stacksize for task 92: unlimited
  | Maximum stacksize for task 93: unlimited
  | Maximum stacksize for task 94: unlimited
  | Maximum stacksize for task 95: unlimited
  | Maximum stacksize for task 96: unlimited
  | Maximum stacksize for task 97: unlimited
  | Maximum stacksize for task 98: unlimited
  | Maximum stacksize for task 99: unlimited
  | Maximum stacksize for task 100: unlimited
  | Maximum stacksize for task 101: unlimited
  | Maximum stacksize for task 102: unlimited
  | Maximum stacksize for task 103: unlimited
  | Maximum stacksize for task 104: unlimited
  | Maximum stacksize for task 105: unlimited
  | Maximum stacksize for task 106: unlimited
  | Maximum stacksize for task 107: unlimited
  | Maximum stacksize for task 108: unlimited
  | Maximum stacksize for task 109: unlimited
  | Maximum stacksize for task 110: unlimited
  | Maximum stacksize for task 111: unlimited
  | Maximum stacksize for task 112: unlimited
  | Maximum stacksize for task 113: unlimited
  | Maximum stacksize for task 114: unlimited
  | Maximum stacksize for task 115: unlimited
  | Maximum stacksize for task 116: unlimited
  | Maximum stacksize for task 117: unlimited
  | Maximum stacksize for task 118: unlimited
  | Maximum stacksize for task 119: unlimited
  | Maximum stacksize for task 120: unlimited
  | Maximum stacksize for task 121: unlimited
  | Maximum stacksize for task 122: unlimited
  | Maximum stacksize for task 123: unlimited
  | Maximum stacksize for task 124: unlimited
  | Maximum stacksize for task 125: unlimited
  | Maximum stacksize for task 126: unlimited
  | Maximum stacksize for task 127: unlimited
  | Maximum stacksize for task 128: unlimited
  | Maximum stacksize for task 129: unlimited
  | Maximum stacksize for task 130: unlimited
  | Maximum stacksize for task 131: unlimited
  | Maximum stacksize for task 132: unlimited
  | Maximum stacksize for task 133: unlimited
  | Maximum stacksize for task 134: unlimited
  | Maximum stacksize for task 135: unlimited
  | Maximum stacksize for task 136: unlimited
  | Maximum stacksize for task 137: unlimited
  | Maximum stacksize for task 138: unlimited
  | Maximum stacksize for task 139: unlimited
  | Maximum stacksize for task 140: unlimited
  | Maximum stacksize for task 141: unlimited
  | Maximum stacksize for task 142: unlimited
  | Maximum stacksize for task 143: unlimited
  | Maximum stacksize for task 144: unlimited
  | Maximum stacksize for task 145: unlimited
  | Maximum stacksize for task 146: unlimited
  | Maximum stacksize for task 147: unlimited
  | Maximum stacksize for task 148: unlimited
  | Maximum stacksize for task 149: unlimited
  | Maximum stacksize for task 150: unlimited
  | Maximum stacksize for task 151: unlimited
  | Maximum stacksize for task 152: unlimited
  | Maximum stacksize for task 153: unlimited
  | Maximum stacksize for task 154: unlimited
  | Maximum stacksize for task 155: unlimited
  | Maximum stacksize for task 156: unlimited
  | Maximum stacksize for task 157: unlimited
  | Maximum stacksize for task 158: unlimited
  | Maximum stacksize for task 159: unlimited
  | Maximum stacksize for task 160: unlimited
  | Maximum stacksize for task 161: unlimited
  | Maximum stacksize for task 162: unlimited
  | Maximum stacksize for task 163: unlimited
  | Maximum stacksize for task 164: unlimited
  | Maximum stacksize for task 165: unlimited
  | Maximum stacksize for task 166: unlimited
  | Maximum stacksize for task 167: unlimited
  | Maximum stacksize for task 168: unlimited
  | Maximum stacksize for task 169: unlimited
  | Maximum stacksize for task 170: unlimited
  | Maximum stacksize for task 171: unlimited
  | Maximum stacksize for task 172: unlimited
  | Maximum stacksize for task 173: unlimited
  | Maximum stacksize for task 174: unlimited
  | Maximum stacksize for task 175: unlimited
  | Maximum stacksize for task 176: unlimited
  | Maximum stacksize for task 177: unlimited
  | Maximum stacksize for task 178: unlimited
  | Maximum stacksize for task 179: unlimited
  | Maximum stacksize for task 180: unlimited
  | Maximum stacksize for task 181: unlimited
  | Maximum stacksize for task 182: unlimited
  | Maximum stacksize for task 183: unlimited
  | Maximum stacksize for task 184: unlimited
  | Maximum stacksize for task 185: unlimited
  | Maximum stacksize for task 186: unlimited
  | Maximum stacksize for task 187: unlimited
  | Maximum stacksize for task 188: unlimited
  | Maximum stacksize for task 189: unlimited
  | Maximum stacksize for task 190: unlimited
  | Maximum stacksize for task 191: unlimited
  | Maximum stacksize for task 192: unlimited
  | Maximum stacksize for task 193: unlimited
  | Maximum stacksize for task 194: unlimited
  | Maximum stacksize for task 195: unlimited
  | Maximum stacksize for task 196: unlimited
  | Maximum stacksize for task 197: unlimited
  | Maximum stacksize for task 198: unlimited
  | Maximum stacksize for task 199: unlimited
  | Maximum stacksize for task 200: unlimited
  | Maximum stacksize for task 201: unlimited
  | Maximum stacksize for task 202: unlimited
  | Maximum stacksize for task 203: unlimited
  | Maximum stacksize for task 204: unlimited
  | Maximum stacksize for task 205: unlimited
  | Maximum stacksize for task 206: unlimited
  | Maximum stacksize for task 207: unlimited
  | Maximum stacksize for task 208: unlimited
  | Maximum stacksize for task 209: unlimited
  | Maximum stacksize for task 210: unlimited
  | Maximum stacksize for task 211: unlimited
  | Maximum stacksize for task 212: unlimited
  | Maximum stacksize for task 213: unlimited
  | Maximum stacksize for task 214: unlimited
  | Maximum stacksize for task 215: unlimited
  | Maximum stacksize for task 216: unlimited
  | Maximum stacksize for task 217: unlimited
  | Maximum stacksize for task 218: unlimited
  | Maximum stacksize for task 219: unlimited
  | Maximum stacksize for task 220: unlimited
  | Maximum stacksize for task 221: unlimited
  | Maximum stacksize for task 222: unlimited
  | Maximum stacksize for task 223: unlimited
  | Maximum stacksize for task 224: unlimited
  | Maximum stacksize for task 225: unlimited
  | Maximum stacksize for task 226: unlimited
  | Maximum stacksize for task 227: unlimited
  | Maximum stacksize for task 228: unlimited
  | Maximum stacksize for task 229: unlimited
  | Maximum stacksize for task 230: unlimited
  | Maximum stacksize for task 231: unlimited
  | Maximum stacksize for task 232: unlimited
  | Maximum stacksize for task 233: unlimited
  | Maximum stacksize for task 234: unlimited
  | Maximum stacksize for task 235: unlimited
  | Maximum stacksize for task 236: unlimited
  | Maximum stacksize for task 237: unlimited
  | Maximum stacksize for task 238: unlimited
  | Maximum stacksize for task 239: unlimited
  | Maximum stacksize for task 240: unlimited
  | Maximum stacksize for task 241: unlimited
  | Maximum stacksize for task 242: unlimited
  | Maximum stacksize for task 243: unlimited
  | Maximum stacksize for task 244: unlimited
  | Maximum stacksize for task 245: unlimited
  | Maximum stacksize for task 246: unlimited
  | Maximum stacksize for task 247: unlimited
  | Maximum stacksize for task 248: unlimited
  | Maximum stacksize for task 249: unlimited
  | Maximum stacksize for task 250: unlimited
  | Maximum stacksize for task 251: unlimited
  | Maximum stacksize for task 252: unlimited
  | Maximum stacksize for task 253: unlimited
  | Maximum stacksize for task 254: unlimited
  | Maximum stacksize for task 255: unlimited
  | Maximum stacksize for task 256: unlimited
  | Maximum stacksize for task 257: unlimited
  | Maximum stacksize for task 258: unlimited
  | Maximum stacksize for task 259: unlimited
  | Maximum stacksize for task 260: unlimited
  | Maximum stacksize for task 261: unlimited
  | Maximum stacksize for task 262: unlimited
  | Maximum stacksize for task 263: unlimited
  | Maximum stacksize for task 264: unlimited
  | Maximum stacksize for task 265: unlimited
  | Maximum stacksize for task 266: unlimited
  | Maximum stacksize for task 267: unlimited
  | Maximum stacksize for task 268: unlimited
  | Maximum stacksize for task 269: unlimited
  | Maximum stacksize for task 270: unlimited
  | Maximum stacksize for task 271: unlimited
  | Maximum stacksize for task 272: unlimited
  | Maximum stacksize for task 273: unlimited
  | Maximum stacksize for task 274: unlimited
  | Maximum stacksize for task 275: unlimited
  | Maximum stacksize for task 276: unlimited
  | Maximum stacksize for task 277: unlimited
  | Maximum stacksize for task 278: unlimited
  | Maximum stacksize for task 279: unlimited
  | Maximum stacksize for task 280: unlimited
  | Maximum stacksize for task 281: unlimited
  | Maximum stacksize for task 282: unlimited
  | Maximum stacksize for task 283: unlimited
  | Maximum stacksize for task 284: unlimited
  | Maximum stacksize for task 285: unlimited
  | Maximum stacksize for task 286: unlimited
  | Maximum stacksize for task 287: unlimited
  | Current stacksize for task 0: unlimited
  | Current stacksize for task 1: unlimited
  | Current stacksize for task 2: unlimited
  | Current stacksize for task 3: unlimited
  | Current stacksize for task 4: unlimited
  | Current stacksize for task 5: unlimited
  | Current stacksize for task 6: unlimited
  | Current stacksize for task 7: unlimited
  | Current stacksize for task 8: unlimited
  | Current stacksize for task 9: unlimited
  | Current stacksize for task 10: unlimited
  | Current stacksize for task 11: unlimited
  | Current stacksize for task 12: unlimited
  | Current stacksize for task 13: unlimited
  | Current stacksize for task 14: unlimited
  | Current stacksize for task 15: unlimited
  | Current stacksize for task 16: unlimited
  | Current stacksize for task 17: unlimited
  | Current stacksize for task 18: unlimited
  | Current stacksize for task 19: unlimited
  | Current stacksize for task 20: unlimited
  | Current stacksize for task 21: unlimited
  | Current stacksize for task 22: unlimited
  | Current stacksize for task 23: unlimited
  | Current stacksize for task 24: unlimited
  | Current stacksize for task 25: unlimited
  | Current stacksize for task 26: unlimited
  | Current stacksize for task 27: unlimited
  | Current stacksize for task 28: unlimited
  | Current stacksize for task 29: unlimited
  | Current stacksize for task 30: unlimited
  | Current stacksize for task 31: unlimited
  | Current stacksize for task 32: unlimited
  | Current stacksize for task 33: unlimited
  | Current stacksize for task 34: unlimited
  | Current stacksize for task 35: unlimited
  | Current stacksize for task 36: unlimited
  | Current stacksize for task 37: unlimited
  | Current stacksize for task 38: unlimited
  | Current stacksize for task 39: unlimited
  | Current stacksize for task 40: unlimited
  | Current stacksize for task 41: unlimited
  | Current stacksize for task 42: unlimited
  | Current stacksize for task 43: unlimited
  | Current stacksize for task 44: unlimited
  | Current stacksize for task 45: unlimited
  | Current stacksize for task 46: unlimited
  | Current stacksize for task 47: unlimited
  | Current stacksize for task 48: unlimited
  | Current stacksize for task 49: unlimited
  | Current stacksize for task 50: unlimited
  | Current stacksize for task 51: unlimited
  | Current stacksize for task 52: unlimited
  | Current stacksize for task 53: unlimited
  | Current stacksize for task 54: unlimited
  | Current stacksize for task 55: unlimited
  | Current stacksize for task 56: unlimited
  | Current stacksize for task 57: unlimited
  | Current stacksize for task 58: unlimited
  | Current stacksize for task 59: unlimited
  | Current stacksize for task 60: unlimited
  | Current stacksize for task 61: unlimited
  | Current stacksize for task 62: unlimited
  | Current stacksize for task 63: unlimited
  | Current stacksize for task 64: unlimited
  | Current stacksize for task 65: unlimited
  | Current stacksize for task 66: unlimited
  | Current stacksize for task 67: unlimited
  | Current stacksize for task 68: unlimited
  | Current stacksize for task 69: unlimited
  | Current stacksize for task 70: unlimited
  | Current stacksize for task 71: unlimited
  | Current stacksize for task 72: unlimited
  | Current stacksize for task 73: unlimited
  | Current stacksize for task 74: unlimited
  | Current stacksize for task 75: unlimited
  | Current stacksize for task 76: unlimited
  | Current stacksize for task 77: unlimited
  | Current stacksize for task 78: unlimited
  | Current stacksize for task 79: unlimited
  | Current stacksize for task 80: unlimited
  | Current stacksize for task 81: unlimited
  | Current stacksize for task 82: unlimited
  | Current stacksize for task 83: unlimited
  | Current stacksize for task 84: unlimited
  | Current stacksize for task 85: unlimited
  | Current stacksize for task 86: unlimited
  | Current stacksize for task 87: unlimited
  | Current stacksize for task 88: unlimited
  | Current stacksize for task 89: unlimited
  | Current stacksize for task 90: unlimited
  | Current stacksize for task 91: unlimited
  | Current stacksize for task 92: unlimited
  | Current stacksize for task 93: unlimited
  | Current stacksize for task 94: unlimited
  | Current stacksize for task 95: unlimited
  | Current stacksize for task 96: unlimited
  | Current stacksize for task 97: unlimited
  | Current stacksize for task 98: unlimited
  | Current stacksize for task 99: unlimited
  | Current stacksize for task 100: unlimited
  | Current stacksize for task 101: unlimited
  | Current stacksize for task 102: unlimited
  | Current stacksize for task 103: unlimited
  | Current stacksize for task 104: unlimited
  | Current stacksize for task 105: unlimited
  | Current stacksize for task 106: unlimited
  | Current stacksize for task 107: unlimited
  | Current stacksize for task 108: unlimited
  | Current stacksize for task 109: unlimited
  | Current stacksize for task 110: unlimited
  | Current stacksize for task 111: unlimited
  | Current stacksize for task 112: unlimited
  | Current stacksize for task 113: unlimited
  | Current stacksize for task 114: unlimited
  | Current stacksize for task 115: unlimited
  | Current stacksize for task 116: unlimited
  | Current stacksize for task 117: unlimited
  | Current stacksize for task 118: unlimited
  | Current stacksize for task 119: unlimited
  | Current stacksize for task 120: unlimited
  | Current stacksize for task 121: unlimited
  | Current stacksize for task 122: unlimited
  | Current stacksize for task 123: unlimited
  | Current stacksize for task 124: unlimited
  | Current stacksize for task 125: unlimited
  | Current stacksize for task 126: unlimited
  | Current stacksize for task 127: unlimited
  | Current stacksize for task 128: unlimited
  | Current stacksize for task 129: unlimited
  | Current stacksize for task 130: unlimited
  | Current stacksize for task 131: unlimited
  | Current stacksize for task 132: unlimited
  | Current stacksize for task 133: unlimited
  | Current stacksize for task 134: unlimited
  | Current stacksize for task 135: unlimited
  | Current stacksize for task 136: unlimited
  | Current stacksize for task 137: unlimited
  | Current stacksize for task 138: unlimited
  | Current stacksize for task 139: unlimited
  | Current stacksize for task 140: unlimited
  | Current stacksize for task 141: unlimited
  | Current stacksize for task 142: unlimited
  | Current stacksize for task 143: unlimited
  | Current stacksize for task 144: unlimited
  | Current stacksize for task 145: unlimited
  | Current stacksize for task 146: unlimited
  | Current stacksize for task 147: unlimited
  | Current stacksize for task 148: unlimited
  | Current stacksize for task 149: unlimited
  | Current stacksize for task 150: unlimited
  | Current stacksize for task 151: unlimited
  | Current stacksize for task 152: unlimited
  | Current stacksize for task 153: unlimited
  | Current stacksize for task 154: unlimited
  | Current stacksize for task 155: unlimited
  | Current stacksize for task 156: unlimited
  | Current stacksize for task 157: unlimited
  | Current stacksize for task 158: unlimited
  | Current stacksize for task 159: unlimited
  | Current stacksize for task 160: unlimited
  | Current stacksize for task 161: unlimited
  | Current stacksize for task 162: unlimited
  | Current stacksize for task 163: unlimited
  | Current stacksize for task 164: unlimited
  | Current stacksize for task 165: unlimited
  | Current stacksize for task 166: unlimited
  | Current stacksize for task 167: unlimited
  | Current stacksize for task 168: unlimited
  | Current stacksize for task 169: unlimited
  | Current stacksize for task 170: unlimited
  | Current stacksize for task 171: unlimited
  | Current stacksize for task 172: unlimited
  | Current stacksize for task 173: unlimited
  | Current stacksize for task 174: unlimited
  | Current stacksize for task 175: unlimited
  | Current stacksize for task 176: unlimited
  | Current stacksize for task 177: unlimited
  | Current stacksize for task 178: unlimited
  | Current stacksize for task 179: unlimited
  | Current stacksize for task 180: unlimited
  | Current stacksize for task 181: unlimited
  | Current stacksize for task 182: unlimited
  | Current stacksize for task 183: unlimited
  | Current stacksize for task 184: unlimited
  | Current stacksize for task 185: unlimited
  | Current stacksize for task 186: unlimited
  | Current stacksize for task 187: unlimited
  | Current stacksize for task 188: unlimited
  | Current stacksize for task 189: unlimited
  | Current stacksize for task 190: unlimited
  | Current stacksize for task 191: unlimited
  | Current stacksize for task 192: unlimited
  | Current stacksize for task 193: unlimited
  | Current stacksize for task 194: unlimited
  | Current stacksize for task 195: unlimited
  | Current stacksize for task 196: unlimited
  | Current stacksize for task 197: unlimited
  | Current stacksize for task 198: unlimited
  | Current stacksize for task 199: unlimited
  | Current stacksize for task 200: unlimited
  | Current stacksize for task 201: unlimited
  | Current stacksize for task 202: unlimited
  | Current stacksize for task 203: unlimited
  | Current stacksize for task 204: unlimited
  | Current stacksize for task 205: unlimited
  | Current stacksize for task 206: unlimited
  | Current stacksize for task 207: unlimited
  | Current stacksize for task 208: unlimited
  | Current stacksize for task 209: unlimited
  | Current stacksize for task 210: unlimited
  | Current stacksize for task 211: unlimited
  | Current stacksize for task 212: unlimited
  | Current stacksize for task 213: unlimited
  | Current stacksize for task 214: unlimited
  | Current stacksize for task 215: unlimited
  | Current stacksize for task 216: unlimited
  | Current stacksize for task 217: unlimited
  | Current stacksize for task 218: unlimited
  | Current stacksize for task 219: unlimited
  | Current stacksize for task 220: unlimited
  | Current stacksize for task 221: unlimited
  | Current stacksize for task 222: unlimited
  | Current stacksize for task 223: unlimited
  | Current stacksize for task 224: unlimited
  | Current stacksize for task 225: unlimited
  | Current stacksize for task 226: unlimited
  | Current stacksize for task 227: unlimited
  | Current stacksize for task 228: unlimited
  | Current stacksize for task 229: unlimited
  | Current stacksize for task 230: unlimited
  | Current stacksize for task 231: unlimited
[...]
            atom         5.07948222        4.70215513       10.44532401  H
            atom         0.00000000        0.00000000        0.00000000  Ag
            atom         2.88874000        0.00000000        0.00000000  Ag
            atom         5.77750000        0.00000000        0.00000000  Ag
            atom         8.66623000        0.00000000        0.00000000  Ag
            atom         1.44437000        2.50173000        0.00000000  Ag
            atom         4.33311000        2.50173000        0.00000000  Ag
            atom         7.22184000        2.50173000        0.00000000  Ag
            atom        10.11060000        2.50173000        0.00000000  Ag
            atom         0.00000000        5.00345000        0.00000000  Ag
            atom         2.88874000        5.00345000        0.00000000  Ag
            atom         5.77750000        5.00345000        0.00000000  Ag
            atom         8.66623000        5.00345000        0.00000000  Ag
            atom         1.44437000        7.50516000        0.00000000  Ag
            atom         4.33311000        7.50516000        0.00000000  Ag
            atom         7.22184000        7.50516000        0.00000000  Ag
            atom        10.11060000        7.50516000        0.00000000  Ag
            atom         1.44437000        0.83390900        2.35865000  Ag
            atom         4.33311000        0.83390900        2.35865000  Ag
            atom         7.22184000        0.83390900        2.35865000  Ag
            atom        10.11060000        0.83390900        2.35865000  Ag
            atom         0.00000000        3.33563000        2.35865000  Ag
            atom         2.88874000        3.33563000        2.35865000  Ag
            atom         5.77750000        3.33563000        2.35865000  Ag
            atom         8.66623000        3.33563000        2.35865000  Ag
            atom         1.44437000        5.83735000        2.35865000  Ag
            atom         4.33311000        5.83735000        2.35865000  Ag
            atom         7.22184000        5.83735000        2.35865000  Ag
            atom        10.11060000        5.83735000        2.35865000  Ag
            atom         0.00000000        8.33909000        2.35865000  Ag
            atom         2.88874000        8.33909000        2.35865000  Ag
            atom         5.77750000        8.33909000        2.35865000  Ag
            atom         8.66623000        8.33909000        2.35865000  Ag
            atom         0.00058477        1.68574000        4.64091000  Ag
            atom         2.88895000        1.68491000        4.64080000  Ag
            atom         5.77708000        1.68425000        4.64090000  Ag
            atom         8.66559000        1.68479000        4.64088000  Ag
            atom         1.44432000        4.18729000        4.64062000  Ag
            atom         4.33302000        4.18584000        4.64129000  Ag
            atom         7.22057000        4.18656000        4.64137000  Ag
            atom        10.10990000        4.18652000        4.64062000  Ag
            atom         0.00023522        6.68885000        4.64023000  Ag
            atom         2.88933000        6.68801000        4.64129000  Ag
            atom         5.77682000        6.68769000        4.64139000  Ag
            atom         8.66575000        6.68843000        4.64056000  Ag
            atom         1.44541000        9.19017000        4.64093000  Ag
            atom         4.33356000        9.18985000        4.64094000  Ag
            atom         7.22168000        9.18953000        4.64092000  Ag
            atom        10.11090000        9.19054000        4.64006000  Ag
            atom         0.00024649        0.01612752        6.93471466  Ag
            atom         2.88908470        0.01667972        6.93603077  Ag
            atom         5.77742531        0.01618267        6.93585189  Ag
            atom         8.66611876        0.01627595        6.93534404  Ag
            atom         1.44499546        2.51836515        6.93573223  Ag
            atom         4.33296933        2.51790387        6.93540406  Ag
            atom         7.22159078        2.51791776        6.93508063  Ag
            atom        10.11051278        2.51814255        6.93527496  Ag
            atom         0.00014097        5.01971135        6.93528293  Ag
            atom         2.88914174        5.01920897        6.93555706  Ag
            atom         5.77668949        5.01950821        6.93582702  Ag
            atom         8.66585353        5.01949058        6.93510377  Ag
            atom         1.44417252        7.52116964        6.93553737  Ag
            atom         4.33325575        7.52149610        6.93519246  Ag
            atom         7.22126516        7.52101299        6.93517005  Ag
            atom        10.11078668        7.52134957        6.93471444  Ag
            atom         7.22840000        4.14508000       14.32980000  Ag
            atom         5.76311000        6.68372000       14.32890000  Ag
            atom         4.29779000        4.14508000       14.32980000  Ag
            atom         5.76311000        3.20277000       16.55840000  Ag
            atom         8.65861000        3.31994000       16.56960000  Ag
            atom         7.31339000        5.88715000       16.55790000  Ag
            atom         4.21286000        5.88715000       16.55790000  Ag
            atom         5.76311000        8.33507000       16.56880000  Ag
            atom         2.86762000        3.31993000       16.56960000  Ag
            atom         7.23131000        2.44940000       18.86410000  Ag
            atom         5.76311000        4.99234000       18.86410000  Ag
            atom         4.29495000        2.44940000       18.86410000  Ag
            atom         8.69946000        4.99234000       18.86410000  Ag
            atom        10.16760000        2.44940000       18.86410000  Ag
            atom         7.23131000        7.53527000       18.86410000  Ag
            atom         4.29495000        7.53527000       18.86410000  Ag
            atom         2.82679000        4.99234000       18.86410000  Ag
            atom         5.76311000       10.07820000       18.86410000  Ag
            atom         1.43349000        2.62685000       18.80440000  Ag

  Fractional coordinates:
                         L1                L2                L3
       atom_frac         0.42792794        0.46052479        0.14935609  H
       atom_frac         0.43959273        0.46989127        0.16069729  H
       atom_frac         0.00000000        0.00000000        0.00000000  Ag
       atom_frac         0.24999971        0.00000000        0.00000000  Ag
       atom_frac         0.50000115        0.00000000        0.00000000  Ag
       atom_frac         0.75000000        0.00000000        0.00000000  Ag
       atom_frac         0.12499986        0.25000049        0.00000000  Ag
       atom_frac         0.37499957        0.25000049        0.00000000  Ag
       atom_frac         0.62499841        0.25000049        0.00000000  Ag
       atom_frac         0.87499986        0.25000049        0.00000000  Ag
       atom_frac         0.00000000        0.49999998        0.00000000  Ag
       atom_frac         0.24999971        0.49999998        0.00000000  Ag
       atom_frac         0.50000115        0.49999998        0.00000000  Ag
       atom_frac         0.75000000        0.49999998        0.00000000  Ag
       atom_frac         0.12499986        0.74999847        0.00000000  Ag
       atom_frac         0.37499957        0.74999847        0.00000000  Ag
       atom_frac         0.62499841        0.74999847        0.00000000  Ag
       atom_frac         0.87499986        0.74999847        0.00000000  Ag
       atom_frac         0.12499986        0.08333340        0.03628692  Ag
       atom_frac         0.37499957        0.08333340        0.03628692  Ag
       atom_frac         0.62499841        0.08333340        0.03628692  Ag
       atom_frac         0.87499986        0.08333340        0.03628692  Ag
       atom_frac         0.00000000        0.33333299        0.03628692  Ag
       atom_frac         0.24999971        0.33333299        0.03628692  Ag
       atom_frac         0.50000115        0.33333299        0.03628692  Ag
       atom_frac         0.75000000        0.33333299        0.03628692  Ag
       atom_frac         0.12499986        0.58333247        0.03628692  Ag
       atom_frac         0.37499957        0.58333247        0.03628692  Ag
       atom_frac         0.62499841        0.58333247        0.03628692  Ag
       atom_frac         0.87499986        0.58333247        0.03628692  Ag
       atom_frac         0.00000000        0.83333396        0.03628692  Ag
       atom_frac         0.24999971        0.83333396        0.03628692  Ag
       atom_frac         0.50000115        0.83333396        0.03628692  Ag
       atom_frac         0.75000000        0.83333396        0.03628692  Ag
       atom_frac         0.00005061        0.16845776        0.07139862  Ag
       atom_frac         0.25001789        0.16837481        0.07139692  Ag
       atom_frac         0.49996481        0.16830886        0.07139846  Ag
       atom_frac         0.74994461        0.16836282        0.07139815  Ag
       atom_frac         0.12499553        0.41844026        0.07139415  Ag
       atom_frac         0.37499178        0.41829536        0.07140446  Ag
       atom_frac         0.62488850        0.41836731        0.07140569  Ag
       atom_frac         0.87493928        0.41836331        0.07139415  Ag
       atom_frac         0.00002036        0.66842376        0.07138815  Ag
       atom_frac         0.25005077        0.66833982        0.07140446  Ag
       atom_frac         0.49994230        0.66830784        0.07140600  Ag
       atom_frac         0.74995846        0.66838179        0.07139323  Ag
       atom_frac         0.12508986        0.91838328        0.07139892  Ag
       atom_frac         0.37503851        0.91835130        0.07139908  Ag
       atom_frac         0.62498457        0.91831932        0.07139877  Ag
       atom_frac         0.87502582        0.91842025        0.07138554  Ag
       atom_frac         0.00002133        0.00161164        0.10668792  Ag
       atom_frac         0.25002954        0.00166682        0.10670817  Ag
       atom_frac         0.49999469        0.00161715        0.10670541  Ag
       atom_frac         0.74999037        0.00162647        0.10669760  Ag
       atom_frac         0.12505399        0.25166286        0.10670357  Ag
       atom_frac         0.37498739        0.25161676        0.10669852  Ag
       atom_frac         0.62497685        0.25161815        0.10669355  Ag
       atom_frac         0.87499231        0.25164061        0.10669654  Ag
       atom_frac         0.00001220        0.50162499        0.10669666  Ag
       atom_frac         0.25003448        0.50157479        0.10670088  Ag
       atom_frac         0.49993101        0.50160469        0.10670503  Ag
       atom_frac         0.74996742        0.50160293        0.10669390  Ag
       atom_frac         0.12498277        0.75159833        0.10670057  Ag
       atom_frac         0.37501218        0.75163095        0.10669527  Ag
       atom_frac         0.62494867        0.75158267        0.10669492  Ag
       atom_frac         0.87501601        0.75161631        0.10668791  Ag
       atom_frac         0.62556613        0.41422217        0.22045846  Ag
       atom_frac         0.49875580        0.66791111        0.22044462  Ag
       atom_frac         0.37194287        0.41422217        0.22045846  Ag
       atom_frac         0.49875580        0.32005615        0.25474462  Ag
       atom_frac         0.74934054        0.33176507        0.25491692  Ag
       atom_frac         0.63292141        0.58830904        0.25473692  Ag
       atom_frac         0.36459279        0.58830904        0.25473692  Ag
       atom_frac         0.49875580        0.83293224        0.25490462  Ag
       atom_frac         0.24817193        0.33176407        0.25491692  Ag
       atom_frac         0.62581797        0.24477110        0.29021692  Ag
       atom_frac         0.49875580        0.49888974        0.29021692  Ag
       atom_frac         0.37169709        0.24477110        0.29021692  Ag
       atom_frac         0.75287582        0.49888974        0.29021692  Ag
       atom_frac         0.87993280        0.24477110        0.29021692  Ag
       atom_frac         0.62581797        0.75300739        0.29021692  Ag
       atom_frac         0.37169709        0.75300739        0.29021692  Ag
       atom_frac         0.24463838        0.49888974        0.29021692  Ag
       atom_frac         0.49875580        1.00712504        0.29021692  Ag
       atom_frac         0.12405827        0.26250386        0.28929846  Ag
------------------------------------------------------------

------------------------------------------------------------------------------
  Final output of selected total energy values:

  The following output summarizes some interesting total energy values
  at the end of a run (AFTER all relaxation, molecular dynamics, etc.).

  | Total energy of the DFT / Hartree-Fock s.c.f. calculation      :      -12150270.202667642 eV
  | Final zero-broadening corrected energy (caution - metals only) :      -12150270.219010225 eV
  | For reference only, the value of 1 Hartree used in FHI-aims is :             27.211384500 eV
  | For reference only, the overall average (free atom contribution
  | + realspace contribution) of the electrostatic potential after
  | s.c.f. convergence is                                          :             -4.611071940 eV

  Before relying on these values, please be sure to understand exactly which
  total energy value is referred to by a given number. Different objects may
  all carry the same name 'total energy'. Definitions:

  Total energy of the DFT / Hartree-Fock s.c.f. calculation:
  | Note that this energy does not include ANY quantities calculated after the
  | s.c.f. cycle, in particular not ANY RPA, MP2, etc. many-body perturbation terms.

  Final zero-broadening corrected energy:
  | For metallic systems only, a broadening of the occupation numbers at the Fermi
  | level can be extrapolated back to zero broadening by an electron-gas inspired
  | formula. For all systems that are not real metals, this value can be
  | meaningless and should be avoided.

------------------------------------------------------------------------------
  Methods described in the following list of references were used in this FHI-aims run.
  If you publish the results, please make sure to cite these reference if they apply.
  FHI-aims is an academic code, and for our developers (often, Ph.D. students
  and postdocs), scientific credit in the community is essential.
  Thank you for helping us!

  For any use of FHI-aims, please cite:

    Volker Blum, Ralf Gehrke, Felix Hanke, Paula Havu, Ville Havu,
    Xinguo Ren, Karsten Reuter, and Matthias Scheffler
    'Ab initio molecular simulations with numeric atom-centered orbitals'
    Computer Physics Communications 180, 2175-2196 (2009)
    http://doi.org/10.1016/j.cpc.2009.06.022


  The provided symmetry information was generated with SPGlib:

    Atsushi Togo, Yusuke Seto, Dimitar Pashov
    SPGlib 1.7.3 obtained from http://spglib.sourceforge.net
    Copyright (C) 2008 Atsushi Togo


  The ELSI infrastructure was used in your run to solve the Kohn-Sham electronic structure.
  Please check out http://elsi-interchange.org to learn more.
  If scalability is important for your project, please acknowledge ELSI by citing:

    V. W-z. Yu, F. Corsetti, A. Garcia, W. P. Huhn, M. Jacquelin, W. Jia,
    B. Lange, L. Lin, J. Lu, W. Mi, A. Seifitokaldani, A. Vazquez-Mayagoitia,
    C. Yang, H. Yang, and V. Blum
    'ELSI: A unified software interface for Kohn-Sham electronic structure solvers'
    Computer Physics Communications 222, 267-285 (2018).
    http://doi.org/10.1016/j.cpc.2017.09.007


  For the real-space grid partitioning and parallelization used in this calculation, please cite:

    Ville Havu, Volker Blum, Paula Havu, and Matthias Scheffler,
    'Efficient O(N) integration for all-electron electronic structure calculation'
    'using numerically tabulated basis functions'
    Journal of Computational Physics 228, 8367-8379 (2009).
    http://doi.org/10.1016/j.jcp.2009.08.008

  Of course, there are many other important community references, e.g., those cited in the
  above references. Our list is limited to references that describe implementations in the
  FHI-aims code. The reason is purely practical (length of this list) - please credit others as well.

   One or more s.c.f. cycles took more than 50 s.c.f. iterations.
   It might be worth adjusting your convergence settings. For example,
   metals need a larger broadening and a smaller "charge_mix_param" value than semiconductors.

------------------------------------------------------------
          Leaving FHI-aims.
          Date     :  20241230, Time     :  224036.361

          Computational steps:
          | Number of self-consistency cycles          :          172
          | Number of SCF (re)initializations          :            3
          | Number of relaxation steps                 :            2

          Detailed time accounting                     :  max(cpu_time)    wall_clock(cpu1)
          | Total time                                  :      695.329 s         696.289 s
          | Preparation time                            :        0.446 s           0.459 s
          | Boundary condition initalization            :        0.347 s           0.345 s
          | Grid partitioning                           :        1.874 s           1.854 s
          | Preloading free-atom quantities on grid     :        1.806 s           1.810 s
          | Free-atom superposition energy              :        0.171 s           0.170 s
          | Total time for integrations                 :      180.628 s         180.722 s
          | Total time for solution of K.-S. equations  :       77.488 s          77.549 s
          | Total time for EV reorthonormalization      :        0.424 s           0.425 s
          | Total time for density & force components   :      317.103 s         317.246 s
          | Total time for mixing & preconditioning     :       55.150 s          55.084 s
          | Total time for Hartree multipole update     :        1.331 s           1.330 s
          | Total time for Hartree multipole sum        :       48.872 s          48.876 s
          | Total time for total energy evaluation      :        0.070 s           0.243 s
          | Total time NSC force correction             :        2.483 s           2.485 s
          | Total time for scaled ZORA corrections      :        0.000 s           0.000 s
          | Total time for vdW correction               :        3.511 s           3.513 s

          Partial memory accounting:
          | Residual value for overall tracked memory usage across tasks:     0.000000 MB (should be 0.000000 MB)
          | Peak values for overall tracked memory usage:
          |   Minimum:      163.553 MB (on task 178 after allocating temp_ham_ovlp)
          |   Maximum:      163.876 MB (on task 216 after allocating temp_ham_ovlp)
          |   Average:      163.632 MB
          | Largest tracked array allocation:
          |   Minimum:       46.851 MB (overlap_matrix on task   0)
          |   Maximum:       46.851 MB (overlap_matrix on task   0)
          |   Average:       46.851 MB
          Note:  These values currently only include a subset of arrays which are explicitly tracked.
          The "true" memory usage will be greater.

          Have a nice day.
------------------------------------------------------------
